# CIF for Ccca phase of LGPS
data_LGPS_Ccca
_pd_phase_name                        'Ccca'
_cell_length_a                        35.4145
_cell_length_b                        11.89068
_cell_length_c                        12.60035
_cell_angle_alpha                     90
_cell_angle_beta                      90
_cell_angle_gamma                     90
_cell_volume                          5306.04
_exptl_crystal_density_diffrn        2.3903
_symmetry_cell_setting               orthorhombic
_symmetry_space_group_name_H-M       'C c c a'

loop_
  _space_group_symop_id
  _space_group_symop_operation_xyz
  1   x,y,z
  2   1/2-x,y,1/2+z
  3   x,-y,1/2+z
  4   1/2-x,-y,z
  5   -x,-y,-z
  6   1/2+x,-y,1/2-z
  7   -x,y,1/2-z
  8   1/2+x,y,-z
  9   1/2+x,1/2+y,z
 10   -x,1/2+y,1/2+z
 11   1/2+x,1/2-y,1/2+z
 12   -x,1/2-y,z
 13   1/2-x,1/2-y,-z
 14   x,1/2-y,1/2-z
 15   1/2-x,1/2+y,1/2-z
 16   x,1/2+y,-z

loop_
  _atom_site_label
  _atom_site_type_symbol
  _atom_site_fract_x
  _atom_site_fract_y
  _atom_site_fract_z
  _atom_site_occupancy

Ge1   Ge   0.41182   0.77315   0.61113   1.0
S1    S    0.46238   0.8662    0.6407    1.0
S2    S    0.42553   0.6014    0.5494    1.0
Ge2   Ge   0.37233   0.53793   0.46795   1.0
S3    S    0.37578   0.3538    0.5138    1.0
S4    S    0.37560   0.5781    0.3000    1.0
S5    S    0.32030   0.5833    0.5381    1.0
S6    S    0.37258   0.75000   0.75000   1.0
S7    S    0.28196   0.3508    0.6553    1.0
P1    P    0.24957   0.25000   0.75000   1.0
S8    S    0.21680   0.1384    0.6634    1.0
S9    S    0.46743   0.6575    0.1533    1.0
P2    P    0.50000   0.75000   0.25000   1.0
Li1   Li   0.9371    0.5035    0.2728    1.0
Li2   Li   0.3354    0.25000   0.75000   1.0
Li3   Li   0.1700    0.5730    0.2170    1.0
Li4   Li   0.6916    0.2242    0.4889    1.0
Li5   Li   0.50000   0.75000   0.75000   1.0
Li6   Li   0.0065    0.7168    0.0014    1.0
Li7   Li   0.0817    0.25000   0.25000   1.0
Li8   Li   0.25000   0.00000   0.5181    1.0
Li9   Li   0.75000   0.50000   0.7960    1.0
Li10  Li   0.3202    0.0000    0.7638    1.0

